265	0	*	1
70	1	*	1
230	2	*	1
475	3	*	1
177	4	*	1
171	5	*	1
182	6	*	1
94	6	0.0/1380aa/36.42%	1
578	7	*	1
84	1	0.0/1083:128aa/49.12%	1
173	6	0.0/1338aa/36.56%	1
189	8	*	1
461	9	*	1
85	10	*	1
76	11	*	1
476	12	*	1
523	13	*	1
505	14	*	1
58	15	*	1
191	16	*	1
86	17	*	1
258	18	*	1
24	19	*	1
28	18	2.92e-142/1021aa/34.68%	1
242	20	*	1
433	21	*	1
166	22	*	1
495	23	*	1
450	24	*	1
23	25	*	1
589	26	*	1
430	27	*	1
563	28	*	1
71	29	*	1
281	30	*	1
579	31	*	1
576	32	*	1
241	33	*	1
477	34	*	1
150	35	*	1
79	25	8.01e-86/953aa/35.8%	1
438	36	*	1
80	37	*	1
231	28	0.0/879aa/43.47%	1
89	38	*	1
155	39	*	1
202	40	*	1
216	41	*	1
484	42	*	1
91	43	*	1
185	44	*	1
30	45	*	1
282	46	*	1
75	46	3.70e-163/737aa/38.6%	1
98	47	*	1
279	48	*	1
74	49	*	1
49	40	0.0/748aa/42.35%	1
68	50	*	1
90	49	2.50e-153/721aa/38.64%	1
254	51	*	1
190	37	1.94e-95/670aa/31.66%	1
43	52	*	1
418	53	*	1
367	24	1.46e-96/689aa/33.28%	1
199	54	*	1
360	55	*	1
149	56	*	1
237	57	*	1
220	58	*	1
217	57	5.36e-109/682aa/32.53%	1
264	59	*	1
222	60	*	1
568	61	*	1
1	62	*	1
486	63	*	1
548	64	*	1
592	65	*	1
228	66	*	1
510	67	*	1
457	68	*	1
483	69	*	1
50	70	*	1
77	71	*	1
586	72	*	1
41	73	*	1
585	74	*	1
268	75	*	1
465	76	*	1
157	77	*	1
575	78	*	1
266	79	*	1
413	80	*	1
470	81	*	1
156	82	*	1
192	83	*	1
439	84	*	1
170	85	*	1
544	86	*	1
564	87	*	1
537	88	*	1
151	89	*	1
509	90	*	1
184	91	*	1
559	92	*	1
596	93	*	1
456	94	*	1
452	95	*	1
232	96	*	1
273	97	*	1
587	98	*	1
550	99	*	1
562	100	*	1
46	97	1.84e-65/458aa/31.46%	1
54	101	*	1
567	102	*	1
226	103	*	1
82	104	*	1
62	105	*	1
121	106	*	1
165	107	*	1
512	108	*	1
278	109	*	1
42	110	*	1
55	111	*	1
29	112	*	1
34	113	*	1
67	114	*	1
511	115	*	1
412	111	3.61e-89/393aa/36.74%	1
580	116	*	1
223	117	*	1
551	118	*	1
598	119	*	1
238	65	2.07e-96/404aa/36.36%	1
566	120	*	1
565	121	*	1
276	122	*	1
517	123	*	1
420	124	*	1
471	125	*	1
129	126	*	1
536	127	*	1
92	128	*	1
522	129	*	1
200	130	*	1
414	131	*	1
518	123	2.56e-86/381aa/35.96%	1
263	132	*	1
147	133	*	1
224	55	2.94e-85/415aa/37.62%	1
259	134	*	1
416	135	*	1
311	136	*	1
152	137	*	1
196	123	1.79e-59/378aa/30.8%	1
203	138	*	1
552	139	*	1
163	140	*	1
571	141	*	1
8	142	*	1
36	111	3.05e-57/375aa/33.24%	1
178	143	*	1
253	144	*	1
256	145	*	1
569	146	*	1
141	147	*	1
526	148	*	1
225	55	1.19e-72/373aa/36.14%	1
260	132	7.63e-85/391aa/41.57%	1
275	149	*	1
481	150	*	1
233	151	*	1
312	152	*	1
227	153	*	1
45	154	*	1
507	137	3.06e-80/386aa/40.22%	1
3	155	*	1
119	156	*	1
198	157	*	1
267	158	*	1
44	159	*	1
48	160	*	1
101	161	*	1
33	162	*	1
93	137	5.28e-79/382aa/38.95%	1
361	163	*	1
539	164	*	1
447	165	*	1
385	136	2.52e-45/363aa/35.01%	1
437	166	*	1
508	167	*	1
529	168	*	1
162	169	*	1
270	170	*	1
528	145	6.73e-57/347aa/35.06%	1
176	171	*	1
201	172	*	1
221	173	*	1
167	173	1.98e-30/286aa/30.34%	1
597	174	*	1
422	143	7.71e-42/320aa/31.25%	1
269	175	*	1
547	176	*	1
88	177	*	1
308	178	*	1
466	171	1.08e-46/300aa/31.13%	1
591	179	*	1
572	180	*	1
460	181	*	1
469	182	*	1
274	183	*	1
549	184	*	1
179	185	*	1
553	186	*	1
513	187	*	1
570	168	8.30e-36/318aa/32.78%	1
582	188	*	1
83	189	*	1
479	190	*	1
7	191	*	1
446	192	*	1
557	193	*	1
573	164	8.16e-59/323aa/36%	1
373	194	*	1
100	195	*	1
272	196	*	1
313	197	*	1
449	198	*	1
59	199	*	1
424	127	8.73e-56/272aa/36.86%	1
73	200	*	1
503	201	*	1
595	202	*	1
136	203	*	1
122	204	*	1
468	205	*	1
371	206	*	1
419	207	*	1
243	208	*	1
444	209	*	1
425	127	1.28e-43/201aa/30.68%	1
187	210	*	1
9	211	*	1
455	212	*	1
87	213	*	1
116	214	*	1
368	215	*	1
287	216	*	1
521	217	*	1
415	218	*	1
69	219	*	1
310	220	*	1
417	221	*	1
453	222	*	1
472	223	*	1
65	224	*	1
123	225	*	1
128	226	*	1
426	227	*	1
262	228	*	1
498	229	*	1
493	230	*	1
386	152	1.64e-34/254aa/34.55%	1
514	200	1.61e-14/279aa/31.3%	1
474	231	*	1
64	224	4.83e-55/243aa/39.75%	1
215	229	2.33e-37/233aa/32.51%	1
467	232	*	1
56	233	*	1
195	234	*	1
280	235	*	1
543	236	*	1
207	237	*	1
427	238	*	1
161	239	*	1
61	240	*	1
448	241	*	1
314	242	*	1
138	217	7.43e-56/252aa/42.42%	1
205	243	*	1
277	244	*	1
443	245	*	1
289	246	*	1
560	247	*	1
63	224	2.84e-25/238aa/31.55%	1
81	248	*	1
96	249	*	1
286	250	*	1
352	251	*	1
487	252	*	1
558	253	*	1
99	254	*	1
234	255	*	1
285	256	*	1
384	257	*	1
127	258	*	1
343	259	*	1
488	260	*	1
35	261	*	1
53	262	*	1
482	263	*	1
353	264	*	1
577	265	*	1
2	266	*	1
533	267	*	1
103	268	*	1
545	269	*	1
16	270	*	1
160	271	*	1
458	272	*	1
489	273	*	1
376	274	*	1
284	275	*	1
288	276	*	1
389	277	*	1
20	278	*	1
26	279	*	1
317	280	*	1
104	271	3.65e-24/174aa/31.84%	1
496	281	*	1
428	282	*	1
318	283	*	1
72	284	*	1
393	280	1.87e-34/173aa/37.43%	1
31	285	*	1
354	286	*	1
459	287	*	1
315	288	*	1
440	289	*	1
451	290	*	1
464	291	*	1
554	292	*	1
51	293	*	1
124	294	*	1
283	295	*	1
290	296	*	1
321	297	*	1
525	298	*	1
168	299	*	1
204	300	*	1
344	301	*	1
394	197	7.22e-28/232aa/39.24%	1
291	302	*	1
320	303	*	1
154	304	*	1
319	305	*	1
47	306	*	1
10	307	*	1
130	308	*	1
180	309	*	1
146	310	*	1
164	311	*	1
499	312	*	1
105	313	*	1
139	314	*	1
372	315	*	1
383	313	6.47e-32/110aa/30.11%	1
250	278	8.94e-35/156aa/34.85%	1
462	316	*	1
78	317	*	1
388	288	6.52e-32/176aa/31.6%	1
322	318	*	1
359	319	*	1
506	320	*	1
316	321	*	1
362	322	*	1
454	323	*	1
0	324	*	1
387	321	2.99e-40/164aa/37.95%	1
390	264	2.81e-19/146aa/30.9%	1
57	317	9.01e-33/147aa/38.41%	1
174	325	*	1
374	326	*	1
485	323	1.33e-24/170aa/33.95%	1
125	327	*	1
140	328	*	1
235	263	9.83e-12/214aa/37.1%	1
309	329	*	1
323	330	*	1
66	331	*	1
206	332	*	1
441	333	*	1
32	334	*	1
351	335	*	1
17	336	*	1
208	337	*	1
293	338	*	1
403	339	*	1
581	340	*	1
532	341	*	1
546	342	*	1
236	289	2.28e-28/159aa/39.47%	1
271	343	*	1
555	344	*	1
159	345	*	1
255	346	*	1
295	347	*	1
398	348	*	1
530	349	*	1
213	350	*	1
392	351	*	1
583	352	*	1
22	353	*	1
95	354	*	1
329	355	*	1
411	356	*	1
594	357	*	1
297	358	*	1
501	359	*	1
183	360	*	1
246	332	7.99e-19/135aa/34.02%	1
301	361	*	1
391	283	5.18e-21/140aa/33.33%	1
396	297	4.18e-20/140aa/35.41%	1
405	362	*	1
298	363	*	1
358	364	*	1
106	365	*	1
347	366	*	1
515	367	*	1
11	368	*	1
148	369	*	1
135	370	*	1
239	371	*	1
186	372	*	1
131	373	*	1
434	374	*	1
478	375	*	1
355	376	*	1
126	377	*	1
325	378	*	1
328	379	*	1
346	380	*	1
356	381	*	1
247	378	3.63e-16/113aa/30.59%	1
302	382	*	1
218	356	6.47e-14/127aa/30.76%	1
410	383	*	1
300	384	*	1
421	385	*	1
538	386	*	1
345	387	*	1
18	366	3.79e-10/134aa/33.85%	1
248	388	*	1
332	389	*	1
327	390	*	1
542	391	*	1
158	392	*	1
214	393	*	1
377	394	*	1
574	395	*	1
294	396	*	1
504	397	*	1
5	398	*	1
153	399	*	1
432	400	*	1
531	401	*	1
240	402	*	1
326	403	*	1
534	404	*	1
296	405	*	1
335	406	*	1
400	390	6.33e-16/108aa/31.93%	1
480	407	*	1
107	408	*	1
113	409	*	1
188	410	*	1
193	411	*	1
395	412	*	1
429	411	2.89e-13/117aa/33.04%	1
60	413	*	1
194	411	6.64e-10/117aa/33.33%	1
584	414	*	1
6	415	*	1
334	416	*	1
249	417	*	1
348	418	*	1
331	419	*	1
209	420	*	1
261	421	*	1
333	422	*	1
463	423	*	1
502	424	*	1
341	425	*	1
380	426	*	1
435	427	*	1
593	428	*	1
108	429	*	1
25	430	*	1
132	431	*	1
137	432	*	1
210	433	*	1
324	434	*	1
357	435	*	1
133	436	*	1
336	437	*	1
364	438	*	1
181	439	*	1
13	440	*	1
21	441	*	1
304	442	*	1
292	443	*	1
12	444	*	1
142	445	*	1
397	446	*	1
38	447	*	1
109	448	*	1
172	449	*	1
257	450	*	1
500	451	*	1
408	452	*	1
342	453	*	1
404	454	*	1
4	455	*	1
19	456	*	1
37	457	*	1
382	458	*	1
473	304	1.91e-11/81aa/31.81%	1
52	304	5.81e-17/79aa/36.78%	1
299	459	*	1
337	460	*	1
535	461	*	1
590	342	4.21e-14/84aa/33.33%	1
169	462	*	1
211	426	7.25e-08/81aa/30.23%	1
245	463	*	1
423	464	*	1
445	465	*	1
378	466	*	1
120	467	*	1
134	468	*	1
556	469	*	1
145	447	5.23e-12/84aa/30.12%	1
406	470	*	1
102	468	3.00e-19/77aa/34.14%	1
305	471	*	1
365	472	*	1
399	403	4.34e-17/81aa/43.2%	1
175	473	*	1
490	474	*	1
143	475	*	1
27	476	*	1
110	477	*	1
338	478	*	1
117	479	*	1
244	480	*	1
350	481	*	1
442	482	*	1
497	483	*	1
588	484	*	1
39	485	*	1
40	486	*	1
144	487	*	1
197	488	*	1
491	489	*	1
492	490	*	1
229	491	*	1
436	492	*	1
363	493	*	1
370	494	*	1
375	495	*	1
97	496	*	1
366	497	*	1
381	498	*	1
561	499	*	1
303	500	*	1
540	501	*	1
115	502	*	1
520	503	*	1
118	483	1.49e-09/47aa/33.84%	1
252	504	*	1
402	505	*	1
431	488	6.03e-07/65aa/32.3%	1
112	506	*	1
306	507	*	1
369	508	*	1
541	509	*	1
349	510	*	1
519	511	*	1
379	512	*	1
14	513	*	1
524	514	*	1
330	515	*	1
111	513	4.12e-08/54aa/32.14%	1
212	516	*	1
401	517	*	1
409	518	*	1
251	519	*	1
15	519	1.17e-07/36aa/30.18%	1
307	520	*	1
494	521	*	1
340	522	*	1
339	523	*	1
527	524	*	1
219	525	*	1
407	523	2.53e-09/48aa/36.73%	1
114	526	*	1
516	527	*	1
